<?xml version="1.0"?>
<VTKFile type="UnstructuredGrid"  version="0.1"  >
<UnstructuredGrid>
<Piece  NumberOfPoints="1397" NumberOfCells="2664">
<Points>
<DataArray  type="Float64"  NumberOfComponents="3"  format="ascii">0 0 0  0.0625 0 0  0.125 0 0  0.1875 0 0  0.25 0 0  0.3125 0 0  0.375 0 0  0.4375 0 0  0.5 0 0  0.5625 0 0  0.625 0 0  0.6875 0 0  0.75 0 0  0.8125 0 0  0.875 0 0  0.9375 0 0  1 0 0  0 0.0625 0  0.0625 0.0625 0  0.125 0.0625 0  0.1875 0.0625 0  0.25 0.0625 0  0.3125 0.0625 0  0.375 0.0625 0  0.4375 0.0625 0  0.5 0.0625 0  0.5625 0.0625 0  0.625 0.0625 0  0.6875 0.0625 0  0.75 0.0625 0  0.8125 0.0625 0  0.875 0.0625 0  0.9375 0.0625 0  1 0.0625 0  0 0.125 0  0.0625 0.125 0  0.125 0.125 0  0.1875 0.125 0  0.25 0.125 0  0.3125 0.125 0  0.375 0.125 0  0.4375 0.125 0  0.5 0.125 0  0.5625 0.125 0  0.625 0.125 0  0.6875 0.125 0  0.75 0.125 0  0.8125 0.125 0  0.875 0.125 0  0.9375 0.125 0  1 0.125 0  0 0.1875 0  0.0625 0.1875 0  0.125 0.1875 0  0.1875 0.1875 0  0.25 0.1875 0  0.3125 0.1875 0  0.375 0.1875 0  0.4375 0.1875 0  0.5 0.1875 0  0.5625 0.1875 0  0.625 0.1875 0  0.6875 0.1875 0  0.75 0.1875 0  0.8125 0.1875 0  0.875 0.1875 0  0.9375 0.1875 0  1 0.1875 0  0 0.25 0  0.0625 0.25 0  0.125 0.25 0  0.1875 0.25 0  0.25 0.25 0  0.3125 0.25 0  0.375 0.25 0  0.4375 0.25 0  0.5 0.25 0  0.5625 0.25 0  0.625 0.25 0  0.6875 0.25 0  0.75 0.25 0  0.8125 0.25 0  0.875 0.25 0  0.9375 0.25 0  1 0.25 0  0 0.3125 0  0.0625 0.3125 0  0.125 0.3125 0  0.1875 0.3125 0  0.25 0.3125 0  0.3125 0.3125 0  0.375 0.3125 0  0.4375 0.3125 0  0.5 0.3125 0  0.5625 0.3125 0  0.625 0.3125 0  0.6875 0.3125 0  0.75 0.3125 0  0.8125 0.3125 0  0.875 0.3125 0  0.9375 0.3125 0  1 0.3125 0  0 0.375 0  0.0625 0.375 0  0.125 0.375 0  0.1875 0.375 0  0.25 0.375 0  0.3125 0.375 0  0.375 0.375 0  0.4375 0.375 0  0.5 0.375 0  0.5625 0.375 0  0.625 0.375 0  0.6875 0.375 0  0.75 0.375 0  0.8125 0.375 0  0.875 0.375 0  0.9375 0.375 0  1 0.375 0  0 0.4375 0  0.0625 0.4375 0  0.125 0.4375 0  0.1875 0.4375 0  0.25 0.4375 0  0.3125 0.4375 0  0.375 0.4375 0  0.4375 0.4375 0  0.5 0.4375 0  0.5625 0.4375 0  0.625 0.4375 0  0.6875 0.4375 0  0.75 0.4375 0  0.8125 0.4375 0  0.875 0.4375 0  0.9375 0.4375 0  1 0.4375 0  0 0.5 0  0.0625 0.5 0  0.125 0.5 0  0.1875 0.5 0  0.25 0.5 0  0.3125 0.5 0  0.375 0.5 0  0.4375 0.5 0  0.5 0.5 0  0.5625 0.5 0  0.625 0.5 0  0.6875 0.5 0  0.75 0.5 0  0.8125 0.5 0  0.875 0.5 0  0.9375 0.5 0  1 0.5 0  0 0.5625 0  0.0625 0.5625 0  0.125 0.5625 0  0.1875 0.5625 0  0.25 0.5625 0  0.3125 0.5625 0  0.375 0.5625 0  0.4375 0.5625 0  0.5 0.5625 0  0.5625 0.5625 0  0.625 0.5625 0  0.6875 0.5625 0  0.75 0.5625 0  0.8125 0.5625 0  0.875 0.5625 0  0.9375 0.5625 0  1 0.5625 0  0 0.625 0  0.0625 0.625 0  0.125 0.625 0  0.1875 0.625 0  0.25 0.625 0  0.3125 0.625 0  0.375 0.625 0  0.4375 0.625 0  0.5 0.625 0  0.5625 0.625 0  0.625 0.625 0  0.6875 0.625 0  0.75 0.625 0  0.8125 0.625 0  0.875 0.625 0  0.9375 0.625 0  1 0.625 0  0 0.6875 0  0.0625 0.6875 0  0.125 0.6875 0  0.1875 0.6875 0  0.25 0.6875 0  0.3125 0.6875 0  0.375 0.6875 0  0.4375 0.6875 0  0.5 0.6875 0  0.5625 0.6875 0  0.625 0.6875 0  0.6875 0.6875 0  0.75 0.6875 0  0.8125 0.6875 0  0.875 0.6875 0  0.9375 0.6875 0  1 0.6875 0  0 0.75 0  0.0625 0.75 0  0.125 0.75 0  0.1875 0.75 0  0.25 0.75 0  0.3125 0.75 0  0.375 0.75 0  0.4375 0.75 0  0.5 0.75 0  0.5625 0.75 0  0.625 0.75 0  0.6875 0.75 0  0.75 0.75 0  0.8125 0.75 0  0.875 0.75 0  0.9375 0.75 0  1 0.75 0  0 0.8125 0  0.0625 0.8125 0  0.125 0.8125 0  0.1875 0.8125 0  0.25 0.8125 0  0.3125 0.8125 0  0.375 0.8125 0  0.4375 0.8125 0  0.5 0.8125 0  0.5625 0.8125 0  0.625 0.8125 0  0.6875 0.8125 0  0.75 0.8125 0  0.8125 0.8125 0  0.875 0.8125 0  0.9375 0.8125 0  1 0.8125 0  0 0.875 0  0.0625 0.875 0  0.125 0.875 0  0.1875 0.875 0  0.25 0.875 0  0.3125 0.875 0  0.375 0.875 0  0.4375 0.875 0  0.5 0.875 0  0.5625 0.875 0  0.625 0.875 0  0.6875 0.875 0  0.75 0.875 0  0.8125 0.875 0  0.875 0.875 0  0.9375 0.875 0  1 0.875 0  0 0.9375 0  0.0625 0.9375 0  0.125 0.9375 0  0.1875 0.9375 0  0.25 0.9375 0  0.3125 0.9375 0  0.375 0.9375 0  0.4375 0.9375 0  0.5 0.9375 0  0.5625 0.9375 0  0.625 0.9375 0  0.6875 0.9375 0  0.75 0.9375 0  0.8125 0.9375 0  0.875 0.9375 0  0.9375 0.9375 0  1 0.9375 0  0 1 0  0.0625 1 0  0.125 1 0  0.1875 1 0  0.25 1 0  0.3125 1 0  0.375 1 0  0.4375 1 0  0.5 1 0  0.5625 1 0  0.625 1 0  0.6875 1 0  0.75 1 0  0.8125 1 0  0.875 1 0  0.9375 1 0  1 1 0  0.96875 0.03125 0  0.03125 0.09375 0  0.96875 0.09375 0  0.03125 0.15625 0  0.09375 0.15625 0  0.90625 0.15625 0  0.96875 0.15625 0  0.09375 0.21875 0  0.90625 0.21875 0  0.96875 0.21875 0  0.09375 0.28125 0  0.90625 0.28125 0  0.96875 0.28125 0  0.15625 0.34375 0  0.90625 0.34375 0  0.96875 0.34375 0  0.15625 0.40625 0  0.90625 0.40625 0  0.96875 0.40625 0  0.21875 0.46875 0  0.84375 0.46875 0  0.90625 0.46875 0  0.96875 0.46875 0  0.21875 0.53125 0  0.84375 0.53125 0  0.90625 0.53125 0  0.96875 0.53125 0  0.28125 0.59375 0  0.84375 0.59375 0  0.90625 0.59375 0  0.96875 0.59375 0  0.28125 0.65625 0  0.34375 0.65625 0  0.84375 0.65625 0  0.90625 0.65625 0  0.96875 0.65625 0  0.34375 0.71875 0  0.40625 0.71875 0  0.84375 0.71875 0  0.90625 0.71875 0  0.96875 0.71875 0  0.34375 0.78125 0  0.40625 0.78125 0  0.78125 0.78125 0  0.84375 0.78125 0  0.90625 0.78125 0  0.96875 0.78125 0  0.40625 0.84375 0  0.46875 0.84375 0  0.53125 0.84375 0  0.59375 0.84375 0  0.65625 0.84375 0  0.71875 0.84375 0  0.78125 0.84375 0  0.84375 0.84375 0  0.90625 0.84375 0  0.96875 0.84375 0  0.40625 0.90625 0  0.46875 0.90625 0  0.53125 0.90625 0  0.59375 0.90625 0  0.65625 0.90625 0  0.71875 0.90625 0  0.78125 0.90625 0  0.84375 0.90625 0  0.90625 0.90625 0  0.96875 0.90625 0  0.40625 0.96875 0  0.46875 0.96875 0  0.53125 0.96875 0  0.59375 0.96875 0  0.65625 0.96875 0  0.71875 0.96875 0  0.78125 0.96875 0  0.84375 0.96875 0  0.90625 0.96875 0  0.96875 0.96875 0  0.0625 0.03125 0  0.03125 0.03125 0  0.03125 0 0  0.03125 0.0625 0  0 0.03125 0  0.125 0.03125 0  0.09375 0.03125 0  0.09375 0 0  0.09375 0.0625 0  0.1875 0.03125 0  0.15625 0.03125 0  0.15625 0 0  0.15625 0.0625 0  0.25 0.03125 0  0.21875 0.03125 0  0.21875 0 0  0.21875 0.0625 0  0.3125 0.03125 0  0.28125 0.03125 0  0.28125 0 0  0.28125 0.0625 0  0.375 0.03125 0  0.34375 0.03125 0  0.34375 0 0  0.34375 0.0625 0  0.4375 0.03125 0  0.40625 0.03125 0  0.40625 0 0  0.40625 0.0625 0  0.5 0.03125 0  0.46875 0.03125 0  0.46875 0 0  0.46875 0.0625 0  0.5625 0.03125 0  0.53125 0.03125 0  0.53125 0 0  0.53125 0.0625 0  0.625 0.03125 0  0.59375 0.03125 0  0.59375 0 0  0.59375 0.0625 0  0.6875 0.03125 0  0.65625 0.03125 0  0.65625 0 0  0.65625 0.0625 0  0.75 0.03125 0  0.71875 0.03125 0  0.71875 0 0  0.71875 0.0625 0  0.8125 0.03125 0  0.78125 0.03125 0  0.78125 0 0  0.78125 0.0625 0  0.875 0.03125 0  0.84375 0.03125 0  0.84375 0 0  0.84375 0.0625 0  0.9375 0.03125 0  0.90625 0.03125 0  0.90625 0 0  0.90625 0.0625 0  0.125 0.09375 0  0.09375 0.09375 0  0.09375 0.125 0  0.0625 0.09375 0  0.1875 0.09375 0  0.15625 0.09375 0  0.15625 0.125 0  0.25 0.09375 0  0.21875 0.09375 0  0.21875 0.125 0  0.3125 0.09375 0  0.28125 0.09375 0  0.28125 0.125 0  0.375 0.09375 0  0.34375 0.09375 0  0.34375 0.125 0  0.4375 0.09375 0  0.40625 0.09375 0  0.40625 0.125 0  0.5 0.09375 0  0.46875 0.09375 0  0.46875 0.125 0  0.5625 0.09375 0  0.53125 0.09375 0  0.53125 0.125 0  0.625 0.09375 0  0.59375 0.09375 0  0.59375 0.125 0  0.6875 0.09375 0  0.65625 0.09375 0  0.65625 0.125 0  0.75 0.09375 0  0.71875 0.09375 0  0.71875 0.125 0  0.8125 0.09375 0  0.78125 0.09375 0  0.78125 0.125 0  0.875 0.09375 0  0.84375 0.09375 0  0.84375 0.125 0  0.9375 0.09375 0  0.90625 0.09375 0  0.90625 0.125 0  0.1875 0.15625 0  0.15625 0.15625 0  0.15625 0.1875 0  0.125 0.15625 0  0.25 0.15625 0  0.21875 0.15625 0  0.21875 0.1875 0  0.3125 0.15625 0  0.28125 0.15625 0  0.28125 0.1875 0  0.375 0.15625 0  0.34375 0.15625 0  0.34375 0.1875 0  0.4375 0.15625 0  0.40625 0.15625 0  0.40625 0.1875 0  0.5 0.15625 0  0.46875 0.15625 0  0.46875 0.1875 0  0.5625 0.15625 0  0.53125 0.15625 0  0.53125 0.1875 0  0.625 0.15625 0  0.59375 0.15625 0  0.59375 0.1875 0  0.6875 0.15625 0  0.65625 0.15625 0  0.65625 0.1875 0  0.75 0.15625 0  0.71875 0.15625 0  0.71875 0.1875 0  0.8125 0.15625 0  0.78125 0.15625 0  0.78125 0.1875 0  0.875 0.15625 0  0.84375 0.15625 0  0.84375 0.1875 0  0.0625 0.21875 0  0.03125 0.21875 0  0.03125 0.1875 0  0.03125 0.25 0  0 0.21875 0  0.1875 0.21875 0  0.15625 0.21875 0  0.15625 0.25 0  0.125 0.21875 0  0.25 0.21875 0  0.21875 0.21875 0  0.21875 0.25 0  0.3125 0.21875 0  0.28125 0.21875 0  0.28125 0.25 0  0.375 0.21875 0  0.34375 0.21875 0  0.34375 0.25 0  0.4375 0.21875 0  0.40625 0.21875 0  0.40625 0.25 0  0.5 0.21875 0  0.46875 0.21875 0  0.46875 0.25 0  0.5625 0.21875 0  0.53125 0.21875 0  0.53125 0.25 0  0.625 0.21875 0  0.59375 0.21875 0  0.59375 0.25 0  0.6875 0.21875 0  0.65625 0.21875 0  0.65625 0.25 0  0.75 0.21875 0  0.71875 0.21875 0  0.71875 0.25 0  0.8125 0.21875 0  0.78125 0.21875 0  0.78125 0.25 0  0.875 0.21875 0  0.84375 0.21875 0  0.84375 0.25 0  0.0625 0.28125 0  0.03125 0.28125 0  0.03125 0.3125 0  0 0.28125 0  0.1875 0.28125 0  0.15625 0.28125 0  0.15625 0.3125 0  0.125 0.28125 0  0.25 0.28125 0  0.21875 0.28125 0  0.21875 0.3125 0  0.3125 0.28125 0  0.28125 0.28125 0  0.28125 0.3125 0  0.375 0.28125 0  0.34375 0.28125 0  0.34375 0.3125 0  0.4375 0.28125 0  0.40625 0.28125 0  0.40625 0.3125 0  0.5 0.28125 0  0.46875 0.28125 0  0.46875 0.3125 0  0.5625 0.28125 0  0.53125 0.28125 0  0.53125 0.3125 0  0.625 0.28125 0  0.59375 0.28125 0  0.59375 0.3125 0  0.6875 0.28125 0  0.65625 0.28125 0  0.65625 0.3125 0  0.75 0.28125 0  0.71875 0.28125 0  0.71875 0.3125 0  0.8125 0.28125 0  0.78125 0.28125 0  0.78125 0.3125 0  0.875 0.28125 0  0.84375 0.28125 0  0.84375 0.3125 0  0.0625 0.34375 0  0.03125 0.34375 0  0.03125 0.375 0  0 0.34375 0  0.125 0.34375 0  0.09375 0.34375 0  0.09375 0.3125 0  0.09375 0.375 0  0.25 0.34375 0  0.21875 0.34375 0  0.21875 0.375 0  0.1875 0.34375
[...]
<PointData  Scalars="u"> 
<DataArray  type="Float64"  Name="u"  format="ascii">1.2173046123849200e-02  1.7974937039378108e-02  1.7189719835288834e-02  1.8074217084089735e-02  1.7733850636075892e-02  1.7131638140735175e-02  1.9444521475505371e-02  1.3683024723318971e-02  1.9976591199711461e-02  3.2112948111799135e-02  2.6132197906105697e-02  2.2037052318064895e-02  1.7678638790512929e-02  1.3466815166375240e-02  8.6231969862264231e-03  5.1936818737591652e-03  0.0000000000000000e+00  -4.2941848367606967e-03  2.1001889683720139e-02  1.5630376535042432e-02  1.8492827750659576e-02  1.7643261502831097e-02  1.7426297337674305e-02  1.8204673622605437e-02  1.7686382861098349e-02  1.3368360647403554e-02  2.8565962056288783e-02  2.9865873221465715e-02  2.3716232195411229e-02  1.9985701809165732e-02  1.5598362825535573e-02  1.0836146249898709e-02  7.6886940735477445e-03  0.0000000000000000e+00  -2.7468078557398158e-03  1.2038347968595157e-02  1.7998307016293288e-02  1.7199655907849162e-02  1.8066442763922178e-02  1.7737554347275305e-02  1.7131190006165718e-02  1.9445294973522983e-02  1.3682476091035158e-02  1.9978737930566239e-02  3.2107820166890663e-02  2.6153534655571350e-02  2.1971473263965556e-02  1.7887466526993839e-02  1.2826899117027123e-02  1.0571627555257977e-02  0.0000000000000000e+00  3.1803331003890239e-03  -3.1931442397506731e-03  2.1161881269176532e-02  1.5636931806387668e-02  1.8481002825001036e-02  1.7639661828502996e-02  1.7447404291171576e-02  1.8167106075532208e-02  1.7737714355718668e-02  1.3312139476746043e-02  2.8612652747860137e-02  2.9848320369803977e-02  2.3670909213564666e-02  2.0206195945398825e-02  1.4834926659492671e-02  1.3381658446600268e-02  0.0000000000000000e+00  1.4943237403074350e-03  -2.3654587051885295e-03  1.1382157183089003e-02  1.8134108561673273e-02  1.7204121837727224e-02  1.8051193743396733e-02  1.7743224654459242e-02  1.7131922767584830e-02  1.9442533595191124e-02  1.3685209779300220e-02  1.9972559573809799e-02  3.2129606530997785e-02  2.6073455697214566e-02  2.2257191525791777e-02  1.6909981817356114e-02  1.6152634666749450e-02  0.0000000000000000e+00  -1.2748157408886635e-03  2.3829933516668323e-03  -2.8437008668609032e-03  2.0958536424629744e-02  1.5744569836555058e-02  1.8436463537987703e-02  1.7635425635910730e-02  1.7490432362772177e-02  1.8087544675830462e-02  1.7849280266410861e-02  1.3181388832844049e-02  2.8751227200364951e-02  2.9670646255374907e-02  2.4060071435896210e-02  1.9006318541542173e-02  1.8912677425944529e-02  0.0000000000000000e+00  -7.1171031314972094e-04  1.2778601346201601e-03  -1.9816845571778404e-03  1.1130872636384946e-02  1.8230094206167370e-02  1.7202537987367757e-02  1.8038933492066256e-02  1.7743150226187509e-02  1.7141618228953950e-02  1.9432419174304574e-02  1.3681874084931987e-02  2.0010312436328708e-02  3.2001909200637543e-02  2.6486769607075269e-02  2.0867836453203545e-02  2.1725801601409047e-02  0.0000000000000000e+00  4.0456536929600845e-04  -8.7145562230243531e-04  1.9816438690633160e-03  -2.3603211595745232e-03  2.0561048005351534e-02  1.5980217555154368e-02  1.8345136136899528e-02  1.7635555086860225e-02  1.7554090116032945e-02  1.7965206129783633e-02  1.8020071385154369e-02  1.3010198410540729e-02  2.8807402890576476e-02  2.9995918097690574e-02  2.2549814158407382e-02  2.4534221965609799e-02  0.0000000000000000e+00  3.1957717291890655e-04  -6.2746122234686212e-04  1.0821001661869875e-03  -1.7357405235963862e-03  1.0882606872364670e-02  1.8329812727056628e-02  1.7197044470351683e-02  1.8034367949375664e-02  1.7726609643277387e-02  1.7179010867175142e-02  1.9379594976849622e-02  1.3742725082470320e-02  1.9887862772633210e-02  3.2456671407320059e-02  2.4757044213787462e-02  2.7148540878641120e-02  0.0000000000000000e+00  -1.2672855502188270e-04  2.3538258061583435e-04  -6.1733462699422898e-04  1.4726799136630317e-03  -1.6462977923083050e-03  2.0044836132667939e-02  1.6298098624754308e-02  1.8218159559447025e-02  1.7640592182718719e-02  1.7641669162226405e-02  1.7779628722087788e-02  1.8341484307712427e-02  1.2521266521730464e-02  2.9646752989112686e-02  2.7861124625556424e-02  2.9651263670857093e-02  0.0000000000000000e+00  -1.3973527623349494e-04  2.8182102731806694e-04  -5.6194133988386036e-04  9.6793640816660801e-04  -1.4980667609872202e-03  1.0274176471649944e-02  1.8502259016935162e-02  1.7161170988156248e-02  1.8039804589506683e-02  1.7685742894081480e-02  1.7239994166843978e-02  1.9310920715351666e-02  1.3638407720232022e-02  2.0544632497875807e-02  3.0175425484266712e-02  3.2565913350926075e-02  0.0000000000000000e+00  5.1375947286560718e-05  -7.3313903013724811e-05  1.5567552049912517e-04  -3.7555049032191354e-04  8.6869720538784430e-04  -5.8773852546234321e-04  1.9356383875113757e-02  1.6754196501028610e-02  1.8080348829115928e-02  1.7673570471204932e-02  1.7737518684385268e-02  1.7643461825274525e-02  1.8582890390510819e-02  1.2628676306370058e-02  2.7737228184778497e-02  3.6122511449873496e-02  0.0000000000000000e+00  4.8479370426536431e-05  -1.0888812911893898e-04  2.4142757753899789e-04  -5.1579250783955843e-04  9.5356079772336317e-04  -1.5309474208291438e-03  1.0024867971825927e-02  1.8675569491127027e-02  1.6958746088638860e-02  1.7998811023277477e-02  1.7527356560327039e-02  1.7358226355514986e-02  1.8755687541963814e-02  1.4526050105439583e-02  1.8086999897580478e-02  3.9164273051555856e-02  0.0000000000000000e+00  -2.0404328973484047e-05  3.0087358720214234e-05  -5.6991537569856329e-05  1.1448515814836597e-04  -2.2336848546454830e-04  3.0125961636466402e-04  8.6396209137110363e-04  1.8232700994647088e-02  1.7665043116102071e-02  1.8253119908745959e-02  1.7977860443894069e-02  1.8161775396221005e-02  1.7585935306847860e-02  2.0213502384788851e-02  8.8976553639617036e-03  3.8614127396548431e-02  0.0000000000000000e+00  -1.2338357539548921e-05  3.2361908298937383e-05  -7.8043153072837268e-05  1.9012667925413451e-04  -4.6266247102974025e-04  1.0823220408727730e-03  -2.1394247107088173e-03  9.3434364432591326e-03  1.8221862803527514e-02  1.5491202762820479e-02  1.6876235944064993e-02  1.6306176819489395e-02  1.6263240134745449e-02  1.7634933690256867e-02  1.1425370041491006e-02  2.9087196818819053e-02  0.0000000000000000e+00  1.0987250537817609e-06  -4.2723457472256409e-06  8.4584758740951285e-06  -1.5517832088713298e-05  2.6088605567875824e-05  -1.3817197028135795e-06  -3.5176218456372865e-04  3.7123540442182959e-03  1.9957355596255392e-02  2.2801987645402904e-02  2.2428347823894895e-02  2.2452670019827547e-02  2.2503552010516136e-02  2.2271450096348604e-02  2.3453100438299773e-02  1.8904542940871839e-02  0.0000000000000000e+00  0.0000000000000000e+00  0.0000000000000000e+00  0.0000000000000000e+00  0.0000000000000000e+00  0.0000000000000000e+00  0.0000000000000000e+00  0.0000000000000000e+00  0.0000000000000000e+00  0.0000000000000000e+00  0.0000000000000000e+00  0.0000000000000000e+00  0.0000000000000000e+00  0.0000000000000000e+00  0.0000000000000000e+00  0.0000000000000000e+00  0.0000000000000000e+00  0.0000000000000000e+00  3.2617747283624561e-03  3.4067901359979788e-03  5.8081792597030751e-03  -3.9446299066774959e-03  1.7456040399339207e-02  1.2068940112525179e-02  8.4661366459000461e-03  3.1919776531014344e-03  1.4127804290723155e-02  1.1101712168125194e-02  -3.5896243257054518e-03  1.6223677464150509e-02  1.3702793127084362e-02  3.1378158204520569e-03  1.8362339202121492e-02  1.6285627930560920e-02  -3.1251170454260333e-03  2.0368912780920585e-02  1.8901255647534507e-02  3.1809659267452513e-03  2.8128806976664318e-02  2.2179690102970991e-02  2.1524860404987457e-02  -2.5658669105437224e-03  3.1260350321531655e-02  2.4220685944193229e-02  2.4013392370132822e-02  3.2417852493118503e-03  3.1490641684119490e-02  2.6953749872312419e-02  2.6388875395877070e-02  -1.7409640386262049e-03  1.4985794533693591e-02  2.5640740388323841e-02  2.9732896152024593e-02  2.9024780410539706e-02  3.6371376317230336e-03  1.9696713982657748e-02  1.5859527241571757e-02  3.0146519680905759e-02  3.2130673975325708e-02  -9.4058627483092493e-04  1.3837465206706855e-02  1.9433212032494419e-02  1.1821523286985615e-02  2.4744779554319078e-02  3.5037276656230361e-02  4.5247505188245694e-03  1.9491351357736508e-02  1.7282552857473394e-02  1.8274865098240962e-02  1.7847019993866953e-02  1.7922001067369551e-02  1.8098772300788348e-02  1.7841323258904945e-02  1.3808542565466285e-02  3.6329499444073411e-02  -1.3510143499997581e-04  1.1655250350361596e-02  1.8747470866699409e-02  1.6220433608689095e-02  1.7058404143375710e-02  1.6875343716744012e-02  1.6353918525819570e-02  1.9129699401881181e-02  7.9204829380176821e-03  3.2877440565550295e-02  -1.0370073355464001e-03  6.4244643696248363e-03  2.1689930090342372e-02  2.0827874092916941e-02  2.0988882788135793e-02  2.0965904319779401e-02  2.0908268256311268e-02  2.1196415869934936e-02  2.0149370537948394e-02  2.4595452763904263e-02  2.0005196551717633e-02  1.7624867121737026e-02  2.0021493357638812e-02  1.1670134832376109e-02  4.5478689937330377e-03  1.6231290565605707e-02  1.6540230592307158e-02  1.5980616601597355e-02  1.8197441824693038e-02  1.8380557716182456e-02  1.7971639797862083e-02  1.8366652597861396e-02  1.7155837274351028e-02  1.7679462162183940e-02  1.7818337308488513e-02  1.7689547621065668e-02  1.8088338955661278e-02  1.7205198407628436e-02  1.7613001345059724e-02  1.7409689762927848e-02  1.7698320709703813e-02  1.8978406256959006e-02  1.7567641511579375e-02  1.8253920466141976e-02  1.7229134912875900e-02  1.5608093934679950e-02  1.8881232618929680e-02  1.7494446742628775e-02  1.9272658607050457e-02  1.6134277189637655e-02  1.2884763714956849e-02  1.3707203537569828e-02  1.3811964987465687e-02  3.0991711976755237e-02  2.4465492095905546e-02  2.8313559210964668e-02  2.0071211911476022e-02  2.8011132815693708e-02  3.1415977030868035e-02  2.9899227558942074e-02  3.1882328013990116e-02  2.2855936057110518e-02  2.4810885949063402e-02  2.3750217687831414e-02  2.6274138723288074e-02  1.8854772585277891e-02  2.1060947607956047e-02  2.0001175732457407e-02  2.1991568819284938e-02  1.4494478084113830e-02  1.6584816343256658e-02  1.5495310968669683e-02  1.7724193603276102e-02  9.8251588670846685e-03  1.2282697904143134e-02  1.1153419780023198e-02  1.3359398580318798e-02  6.1384798107314304e-03  7.8132216107070218e-03  6.7366051213778285e-03  8.8894636901843092e-03  1.6470697954871619e-02  2.0101168739406348e-02  2.0115834127630110e-02  1.7873700544671006e-02  1.7994093089475815e-02  1.6255119515297345e-02  1.5990357553479544e-02  1.7810305740187105e-02  1.8358596933990425e-02  1.8360271680830941e-02  1.7616174241684501e-02  1.7695537762958905e-02  1.7688479009595061e-02  1.7568703642161492e-02  1.7191003551771361e-02  1.7419213740292028e-02  1.8875723571277554e-02  1.8995808535125971e-02  1.8237958789842478e-02  1.2898132922509629e-02  1.5589569434226822e-02  1.7517329498395101e-02  2.4448216539979282e-02  1.6149029794733830e-02  1.3681790022443342e-02  3.1428752499697447e-02  3.0986563385497167e-02  2.8337895906083543e-02  2.4816409857100798e-02  2.8012787613147901e-02  2.9881119407892762e-02  2.1018981298463173e-02  2.2852918535796130e-02  2.3768583347956149e-02  1.6726286735969584e-02  1.8870433390137598e-02  1.9973419658600736e-02  1.1862622433875675e-02  1.4444837344105635e-02  1.5561288941810416e-02  8.9461918539888007e-03  9.9962012470359365e-03  1.0986224833347397e-02  1.6225586943107172e-02  1.6632000346903694e-02  1.8258200763479754e-02  2.0048898072014942e-02  1.8384516138607258e-02  1.7951815724626435e-02  1.7169757332538355e-02  1.7665586773767589e-02  1.7817597567949657e-02  1.8074769743425988e-02  1.7233208293101921e-02  1.7625589862385167e-02  1.7704433817153625e-02  1.8936938074087691e-02  1.7543868138950033e-02  1.7227393839474327e-02  1.5659888466105585e-02  1.8919567939235209e-02  1.9273538481599788e-02  1.6084882216850300e-02  1.2834043466857839e-02  1.3811235156954772e-02  3.1024663401002642e-02  2.4520024705386202e-02  2.0071967397068274e-02  2.8008110595946805e-02  3.1371310147821706e-02  3.1880080844199889e-02  2.2807270857661353e-02  2.4848016251515150e-02  2.6284997663522405e-02  1.9046878733940613e-02  2.1017300768420198e-02  2.1958545024521516e-02  1.3862727965323176e-02  1.6677223283051257e-02  1.7825113088575702e-02  -3.9382418090412406e-03  6.5599516163833611e-04  -2.2662643146598204e-03  2.1750960720221934e-03  2.9494096925424432e-03  1.6429259731410135e-02  2.0313927353609842e-02  2.0021352039462901e-02  1.7535877777379926e-02  1.8015915562128296e-02  1.6287419911123684e-02  1.6035943878484032e-02  1.7794550064094503e-02  1.8323676257458309e-02  1.8336498289570482e-02  1.7632109689759968e-02  1.7709511355288275e-02  1.7684222712432453e-02  1.7548531366741227e-02  1.7191715234796266e-02  1.7447277192757005e-02  1.8898742605045746e-02  1.8986766916228307e-02  1.8187490009178551e-02  1.2878660606461435e-02  1.5603786261797323e-02  1.7586093192681378e-02  2.4456238257284019e-02  1.6129396791684760e-02  1.3605460120904434e-02  3.1440694495711886e-02  3.1007760106674959e-02  2.8403825838710994e-02  2.4750492294378573e-02  2.8002656615169971e-02  2.9843305577220657e-02  2.1263115098552020e-02  2.2832233549181295e-02  2.3756900577421653e-02  1.5894817775969513e-02  1.8972104909723116e-02  2.0095795948490747e-02  4.6699098859996688e-05  2.3569343393705492e-03  1.2282677447859242e-03  1.3385328090985291e-04  2.0044262627871984e-02  1.6965634058471010e-02  1.0734163232068342e-02  3.9013015926834139e-03  1.6240898957267821e-02  1.6845794454535316e-02  1.8347151023392714e-02  1.8371323111969460e-02  1.7902690963036674e-02  1.7177075332514270e-02  1.7650731660773997e-02  1.7815829533817818e-02  1.8057512510962399e-02  1.7277300054748868e-02  1.7651081431932520e-02  1.7710776759400207e-02  1.8865095041173782e-02  1.7496080609745477e-02  1.7228623577474286e-02  1.5752529366016441e-02  1.8991365931106209e-02  1.9270053974423600e-02  1.5985868943670552e-02  1.2744131958618140e-02  1.3813820104604239e-02  3.1121828249770129e-02  2.4608053413516986e-02  2.0069025677047821e-02  2.7875989435350391e-02  3.1312389619881822e-02  3.1891169890249489e-02  2.3132906075255436e-02  2.4849897025965403e-02  2.6239376458510467e-02  1.8002344936957577e-02  2.1140037595485311e-02  2.2127496504709271e-02  2.1011930177102277e-03  -1.3756340075323818e-04  -8.6203506031430871e-04  -1.2614360965258831e-03  -3.3960018262257788e-03  6.2611213610896195e-04  -1.9355713141227752e-03  1.7298792540345310e-03  1.6482858646718949e-02  2.0269781485576718e-02  1.9730166522326693e-02  1.7312342712167871e-02  1.8005749296271703e-02  1.6384742824565448e-02  1.6199151020254456e-02  1.7782764100826104e-02  1.8271862384773688e-02  1.8276191340671627e-02  1.7655621342328572e-02  1.7717646325388508e-02  1.7680809893961636e-02  1.7510749090149227e-02  1.7213723220553184e-02  1.7494961172419846e-02  1.8952294237460580e-02  1.8944057396107886e-02  1.8098434724571857e-02  1.2812016172501184e-02  1.5659352557373846e-02  1.7711698286188952e-02  2.4539776088561290e-02  1.6066998995300959e-02  1.3460019114443025e-02  3.1294517303723436e-02  3.1074955270308433e-02  2.8546842713207992e-02  2.5137808630503855e-02  2.7913554016935915e-02  2.9694016137768481e-02  2.0011807113402478e-02  2.3034667711172609e-02  2.4017598669740868e-02  1.3778737058170863e-04  -9.9472203377550103e-04  -5.9842052266463857e-04  -1.8559815663888679e-04  -1.2823622768985221e-04  2.0997393447483711e-03  1.0617676710723352e-03  1.9862232195110619e-02  1.6483443097575771e-02  1.0540478916553754e-02  4.1419010003100895e-03  1.6331180683050148e-02  1.7137726389566024e-02  1.8418369642549493e-02  1.8335430631898634e-02  1.7814479602088068e-02  1.7184866596997590e-02  1.7632729443334588e-02  1.7821104633700732e-02  1.8042875285312551e-02  1.7342424680411205e-02  1.7685357323456937e-02  1.7710090311123836e-02  1.8757253633824782e-02  1.7425347857243430e-02  1.7241788390329655e-02  1.5885292639772723e-02  1.9103184908802268e-02  1.9254746651452496e-02  1.5875626102543061e-02  1.2596672854011767e-02  1.3816606006410973e-02  3.1114871175008576e-02  2.4770512296501464e-02  2.0096987796766344e-02  2.8221535077336567e-02  3.1136934521253819e-02  3.1800536797004675e-02  2.1730387621280267e-02  2.5138498469904871e-02  2.6507210091495832e-02  -8.6011247163343490e-04  -7.5232980705311435e-05  2.3955301816345158e-04  4.5457232675972321e-04  1.6456866135734812e-03  -5.5880303393390482e-05  -6.0223954591487490e-04  -2.9098986735670435e-03  5.8163949309290646e-04  -1.7136712401228909e-03  1.3365422179509076e-03  1.6621338962714768e-02  2.0130388282769134e-02  1.9303943004060371e-02  1.6994367060312512e-02  1.7954469949372283e-02  1.6542168991349686e-02  1.6452171613652859e-02  1.7784727041272267e-02  1.8202817992752095e-02  1.8178236684633607e-02  1.7677145061743837e-02  1.7716148181474083e-02  1.7680566377061665e-02  1.7467893338168290e-02  1.7265197717762460e-02  1.7560093584204108e-02  1.9017064591319324e-02  1.8855812875937211e-02  1.7968448622935635e-02  1.2747042933069490e-02  1.5763453522168538e-02  1.7899922077711451e-02  2.4518875555418190e-02  1.5984617730968577e-02  1.3254977963395047e-02  3.1664457474909667e-02  3.1076721645720604e-02  2.8665210258744585e-02  -1.9867764591526772e-04  3.6123763481586360e-04  2.6148892573229989e-04  1.2577652860838265e-04  2.4517667776141215e-04  -8.4692719776357334e-04  -5.3717691817099637e-04  -3.9287547788696415e-04  1.7543711017824711e-03  9.2836298609979965e-04  1.9589688897464336e-02  1.5890987444983348e-02  1.0290113318827848e-02  4.5172172675651719e-03  1.6478388560527902e-02  1.7490785377810375e-02  1.8509888284862882e-02  1.8278760712349216e-02  1.7698149961453084e-02  1.7192051941665221e-02  1.7607292991960285e-02  1.7834979398435778e-02  1.8036311595912961e-02  1.7439919618515872e-02  1.7720965259431062e-02  1.7695208035625007e-02  1.8579681192677062e-02  1.7340483462427721e-02  1.7286573564705501e-02  1.6145518974409023e-02  1.9248232652124060e-02  1.9195939478137209e-02  1.5512647140618232e-02  1.2405818317994090e-02  1.3874202057995937e-02  3.1782597660170588e-02  2.4912192767893280e-02  2.0031882703635283e-02  3.0750061578219302e-04  7.3882601223850959e-05  -7.0897447783783938e-05  -1.7035805455450310e-04  -6.4070929068705694e-04  -1.3205027716955322e-04  1.4325770064295488e-04  1.2113349416935490e-03  5.0164124121445289e-05  -3.8130528642812506e-04  -2.2779162904155090e-03  4.4686345409254621e-04  -1.4922447664722381e-03  8.4591501489282128e-04  1.6840795144178581e-02  1.9992689337021318e-02  1.8780891154558586e-02  1.6480807832419057e-02  1.7865382826912496e-02  1.6725326933593999e-02  1.6770801307063047e-02  1.7804492754240040e-02  1.8128934950902006e-02  1.8044237438615402e-02  1.7692991938116569e-02  1.7699361147184657e-02  1.7677007310947027e-02  1.7418455200612804e-02  1.7361113660855781e-02  1.7635250166894486e-02  1.9148504260288541e-02  1.8686103782737648e-02  1.7781011353864278e-02  1.2432718362373758e-02  1.5992608126154030e-02  1.8213150323236036e-02  2.5286642721675932e-02  1.5726167861670439e-02  1.2780577159006028e-02  1.1081589011895234e-04  -1.4137611306484833e-04  -1.0661272014711486e-04  -5.8245379770233390e-05  -2.3127459350382121e-04  3.1374305909929301e-04  2.3199482854927643e-04  3.7780384570203196e-04  -6.8641348097773602e-04  -4.8702308450038569e-04  -7.8874079090630498e-04  1.3661596663811881e-03  8.4579657266724403e-04  1.6662126136531407e-02  1.7942888347317623e-02  1.8654028261351232e-02  1.9314731360535135e-02  1.8207554005902044e-02  1.7536909700414889e-02  1.7188877688511645e-02  1.7573387458154989e-02  1.7856690168467509e-02  1.8067469348190965e-02  1.7548092284803748e-02  1.7746669074529077e-02  1.7684088984614432e-02  1.8381469764999415e-02  1.7246071887279776e-02  1.7389788088652845e-02  1.6319586369977369e-02  1.9458725834847215e-02  1.9111315481232717e-02  1.5783494042610709e-02  1.1973305437680258e-02  1.3887442530475668e-02  -1.1282154575497886e-04  -2.9155589437568543e-05  3.025852829125975