<?xml version="1.0"?>
<VTKFile type="UnstructuredGrid"  version="0.1"  >
<UnstructuredGrid>
<Piece  NumberOfPoints="1397" NumberOfCells="2664">
<Points>
<DataArray  type="Float64"  NumberOfComponents="3"  format="ascii">0 0 0  0.0625 0 0  0.125 0 0  0.1875 0 0  0.25 0 0  0.3125 0 0  0.375 0 0  0.4375 0 0  0.5 0 0  0.5625 0 0  0.625 0 0  0.6875 0 0  0.75 0 0  0.8125 0 0  0.875 0 0  0.9375 0 0  1 0 0  0 0.0625 0  0.0625 0.0625 0  0.125 0.0625 0  0.1875 0.0625 0  0.25 0.0625 0  0.3125 0.0625 0  0.375 0.0625 0  0.4375 0.0625 0  0.5 0.0625 0  0.5625 0.0625 0  0.625 0.0625 0  0.6875 0.0625 0  0.75 0.0625 0  0.8125 0.0625 0  0.875 0.0625 0  0.9375 0.0625 0  1 0.0625 0  0 0.125 0  0.0625 0.125 0  0.125 0.125 0  0.1875 0.125 0  0.25 0.125 0  0.3125 0.125 0  0.375 0.125 0  0.4375 0.125 0  0.5 0.125 0  0.5625 0.125 0  0.625 0.125 0  0.6875 0.125 0  0.75 0.125 0  0.8125 0.125 0  0.875 0.125 0  0.9375 0.125 0  1 0.125 0  0 0.1875 0  0.0625 0.1875 0  0.125 0.1875 0  0.1875 0.1875 0  0.25 0.1875 0  0.3125 0.1875 0  0.375 0.1875 0  0.4375 0.1875 0  0.5 0.1875 0  0.5625 0.1875 0  0.625 0.1875 0  0.6875 0.1875 0  0.75 0.1875 0  0.8125 0.1875 0  0.875 0.1875 0  0.9375 0.1875 0  1 0.1875 0  0 0.25 0  0.0625 0.25 0  0.125 0.25 0  0.1875 0.25 0  0.25 0.25 0  0.3125 0.25 0  0.375 0.25 0  0.4375 0.25 0  0.5 0.25 0  0.5625 0.25 0  0.625 0.25 0  0.6875 0.25 0  0.75 0.25 0  0.8125 0.25 0  0.875 0.25 0  0.9375 0.25 0  1 0.25 0  0 0.3125 0  0.0625 0.3125 0  0.125 0.3125 0  0.1875 0.3125 0  0.25 0.3125 0  0.3125 0.3125 0  0.375 0.3125 0  0.4375 0.3125 0  0.5 0.3125 0  0.5625 0.3125 0  0.625 0.3125 0  0.6875 0.3125 0  0.75 0.3125 0  0.8125 0.3125 0  0.875 0.3125 0  0.9375 0.3125 0  1 0.3125 0  0 0.375 0  0.0625 0.375 0  0.125 0.375 0  0.1875 0.375 0  0.25 0.375 0  0.3125 0.375 0  0.375 0.375 0  0.4375 0.375 0  0.5 0.375 0  0.5625 0.375 0  0.625 0.375 0  0.6875 0.375 0  0.75 0.375 0  0.8125 0.375 0  0.875 0.375 0  0.9375 0.375 0  1 0.375 0  0 0.4375 0  0.0625 0.4375 0  0.125 0.4375 0  0.1875 0.4375 0  0.25 0.4375 0  0.3125 0.4375 0  0.375 0.4375 0  0.4375 0.4375 0  0.5 0.4375 0  0.5625 0.4375 0  0.625 0.4375 0  0.6875 0.4375 0  0.75 0.4375 0  0.8125 0.4375 0  0.875 0.4375 0  0.9375 0.4375 0  1 0.4375 0  0 0.5 0  0.0625 0.5 0  0.125 0.5 0  0.1875 0.5 0  0.25 0.5 0  0.3125 0.5 0  0.375 0.5 0  0.4375 0.5 0  0.5 0.5 0  0.5625 0.5 0  0.625 0.5 0  0.6875 0.5 0  0.75 0.5 0  0.8125 0.5 0  0.875 0.5 0  0.9375 0.5 0  1 0.5 0  0 0.5625 0  0.0625 0.5625 0  0.125 0.5625 0  0.1875 0.5625 0  0.25 0.5625 0  0.3125 0.5625 0  0.375 0.5625 0  0.4375 0.5625 0  0.5 0.5625 0  0.5625 0.5625 0  0.625 0.5625 0  0.6875 0.5625 0  0.75 0.5625 0  0.8125 0.5625 0  0.875 0.5625 0  0.9375 0.5625 0  1 0.5625 0  0 0.625 0  0.0625 0.625 0  0.125 0.625 0  0.1875 0.625 0  0.25 0.625 0  0.3125 0.625 0  0.375 0.625 0  0.4375 0.625 0  0.5 0.625 0  0.5625 0.625 0  0.625 0.625 0  0.6875 0.625 0  0.75 0.625 0  0.8125 0.625 0  0.875 0.625 0  0.9375 0.625 0  1 0.625 0  0 0.6875 0  0.0625 0.6875 0  0.125 0.6875 0  0.1875 0.6875 0  0.25 0.6875 0  0.3125 0.6875 0  0.375 0.6875 0  0.4375 0.6875 0  0.5 0.6875 0  0.5625 0.6875 0  0.625 0.6875 0  0.6875 0.6875 0  0.75 0.6875 0  0.8125 0.6875 0  0.875 0.6875 0  0.9375 0.6875 0  1 0.6875 0  0 0.75 0  0.0625 0.75 0  0.125 0.75 0  0.1875 0.75 0  0.25 0.75 0  0.3125 0.75 0  0.375 0.75 0  0.4375 0.75 0  0.5 0.75 0  0.5625 0.75 0  0.625 0.75 0  0.6875 0.75 0  0.75 0.75 0  0.8125 0.75 0  0.875 0.75 0  0.9375 0.75 0  1 0.75 0  0 0.8125 0  0.0625 0.8125 0  0.125 0.8125 0  0.1875 0.8125 0  0.25 0.8125 0  0.3125 0.8125 0  0.375 0.8125 0  0.4375 0.8125 0  0.5 0.8125 0  0.5625 0.8125 0  0.625 0.8125 0  0.6875 0.8125 0  0.75 0.8125 0  0.8125 0.8125 0  0.875 0.8125 0  0.9375 0.8125 0  1 0.8125 0  0 0.875 0  0.0625 0.875 0  0.125 0.875 0  0.1875 0.875 0  0.25 0.875 0  0.3125 0.875 0  0.375 0.875 0  0.4375 0.875 0  0.5 0.875 0  0.5625 0.875 0  0.625 0.875 0  0.6875 0.875 0  0.75 0.875 0  0.8125 0.875 0  0.875 0.875 0  0.9375 0.875 0  1 0.875 0  0 0.9375 0  0.0625 0.9375 0  0.125 0.9375 0  0.1875 0.9375 0  0.25 0.9375 0  0.3125 0.9375 0  0.375 0.9375 0  0.4375 0.9375 0  0.5 0.9375 0  0.5625 0.9375 0  0.625 0.9375 0  0.6875 0.9375 0  0.75 0.9375 0  0.8125 0.9375 0  0.875 0.9375 0  0.9375 0.9375 0  1 0.9375 0  0 1 0  0.0625 1 0  0.125 1 0  0.1875 1 0  0.25 1 0  0.3125 1 0  0.375 1 0  0.4375 1 0  0.5 1 0  0.5625 1 0  0.625 1 0  0.6875 1 0  0.75 1 0  0.8125 1 0  0.875 1 0  0.9375 1 0  1 1 0  0.96875 0.03125 0  0.03125 0.09375 0  0.96875 0.09375 0  0.03125 0.15625 0  0.09375 0.15625 0  0.90625 0.15625 0  0.96875 0.15625 0  0.09375 0.21875 0  0.90625 0.21875 0  0.96875 0.21875 0  0.09375 0.28125 0  0.90625 0.28125 0  0.96875 0.28125 0  0.15625 0.34375 0  0.90625 0.34375 0  0.96875 0.34375 0  0.15625 0.40625 0  0.90625 0.40625 0  0.96875 0.40625 0  0.21875 0.46875 0  0.84375 0.46875 0  0.90625 0.46875 0  0.96875 0.46875 0  0.21875 0.53125 0  0.84375 0.53125 0  0.90625 0.53125 0  0.96875 0.53125 0  0.28125 0.59375 0  0.84375 0.59375 0  0.90625 0.59375 0  0.96875 0.59375 0  0.28125 0.65625 0  0.34375 0.65625 0  0.84375 0.65625 0  0.90625 0.65625 0  0.96875 0.65625 0  0.34375 0.71875 0  0.40625 0.71875 0  0.84375 0.71875 0  0.90625 0.71875 0  0.96875 0.71875 0  0.34375 0.78125 0  0.40625 0.78125 0  0.78125 0.78125 0  0.84375 0.78125 0  0.90625 0.78125 0  0.96875 0.78125 0  0.40625 0.84375 0  0.46875 0.84375 0  0.53125 0.84375 0  0.59375 0.84375 0  0.65625 0.84375 0  0.71875 0.84375 0  0.78125 0.84375 0  0.84375 0.84375 0  0.90625 0.84375 0  0.96875 0.84375 0  0.40625 0.90625 0  0.46875 0.90625 0  0.53125 0.90625 0  0.59375 0.90625 0  0.65625 0.90625 0  0.71875 0.90625 0  0.78125 0.90625 0  0.84375 0.90625 0  0.90625 0.90625 0  0.96875 0.90625 0  0.40625 0.96875 0  0.46875 0.96875 0  0.53125 0.96875 0  0.59375 0.96875 0  0.65625 0.96875 0  0.71875 0.96875 0  0.78125 0.96875 0  0.84375 0.96875 0  0.90625 0.96875 0  0.96875 0.96875 0  0.0625 0.03125 0  0.03125 0.03125 0  0.03125 0 0  0.03125 0.0625 0  0 0.03125 0  0.125 0.03125 0  0.09375 0.03125 0  0.09375 0 0  0.09375 0.0625 0  0.1875 0.03125 0  0.15625 0.03125 0  0.15625 0 0  0.15625 0.0625 0  0.25 0.03125 0  0.21875 0.03125 0  0.21875 0 0  0.21875 0.0625 0  0.3125 0.03125 0  0.28125 0.03125 0  0.28125 0 0  0.28125 0.0625 0  0.375 0.03125 0  0.34375 0.03125 0  0.34375 0 0  0.34375 0.0625 0  0.4375 0.03125 0  0.40625 0.03125 0  0.40625 0 0  0.40625 0.0625 0  0.5 0.03125 0  0.46875 0.03125 0  0.46875 0 0  0.46875 0.0625 0  0.5625 0.03125 0  0.53125 0.03125 0  0.53125 0 0  0.53125 0.0625 0  0.625 0.03125 0  0.59375 0.03125 0  0.59375 0 0  0.59375 0.0625 0  0.6875 0.03125 0  0.65625 0.03125 0  0.65625 0 0  0.65625 0.0625 0  0.75 0.03125 0  0.71875 0.03125 0  0.71875 0 0  0.71875 0.0625 0  0.8125 0.03125 0  0.78125 0.03125 0  0.78125 0 0  0.78125 0.0625 0  0.875 0.03125 0  0.84375 0.03125 0  0.84375 0 0  0.84375 0.0625 0  0.9375 0.03125 0  0.90625 0.03125 0  0.90625 0 0  0.90625 0.0625 0  0.125 0.09375 0  0.09375 0.09375 0  0.09375 0.125 0  0.0625 0.09375 0  0.1875 0.09375 0  0.15625 0.09375 0  0.15625 0.125 0  0.25 0.09375 0  0.21875 0.09375 0  0.21875 0.125 0  0.3125 0.09375 0  0.28125 0.09375 0  0.28125 0.125 0  0.375 0.09375 0  0.34375 0.09375 0  0.34375 0.125 0  0.4375 0.09375 0  0.40625 0.09375 0  0.40625 0.125 0  0.5 0.09375 0  0.46875 0.09375 0  0.46875 0.125 0  0.5625 0.09375 0  0.53125 0.09375 0  0.53125 0.125 0  0.625 0.09375 0  0.59375 0.09375 0  0.59375 0.125 0  0.6875 0.09375 0  0.65625 0.09375 0  0.65625 0.125 0  0.75 0.09375 0  0.71875 0.09375 0  0.71875 0.125 0  0.8125 0.09375 0  0.78125 0.09375 0  0.78125 0.125 0  0.875 0.09375 0  0.84375 0.09375 0  0.84375 0.125 0  0.9375 0.09375 0  0.90625 0.09375 0  0.90625 0.125 0  0.1875 0.15625 0  0.15625 0.15625 0  0.15625 0.1875 0  0.125 0.15625 0  0.25 0.15625 0  0.21875 0.15625 0  0.21875 0.1875 0  0.3125 0.15625 0  0.28125 0.15625 0  0.28125 0.1875 0  0.375 0.15625 0  0.34375 0.15625 0  0.34375 0.1875 0  0.4375 0.15625 0  0.40625 0.15625 0  0.40625 0.1875 0  0.5 0.15625 0  0.46875 0.15625 0  0.46875 0.1875 0  0.5625 0.15625 0  0.53125 0.15625 0  0.53125 0.1875 0  0.625 0.15625 0  0.59375 0.15625 0  0.59375 0.1875 0  0.6875 0.15625 0  0.65625 0.15625 0  0.65625 0.1875 0  0.75 0.15625 0  0.71875 0.15625 0  0.71875 0.1875 0  0.8125 0.15625 0  0.78125 0.15625 0  0.78125 0.1875 0  0.875 0.15625 0  0.84375 0.15625 0  0.84375 0.1875 0  0.0625 0.21875 0  0.03125 0.21875 0  0.03125 0.1875 0  0.03125 0.25 0  0 0.21875 0  0.1875 0.21875 0  0.15625 0.21875 0  0.15625 0.25 0  0.125 0.21875 0  0.25 0.21875 0  0.21875 0.21875 0  0.21875 0.25 0  0.3125 0.21875 0  0.28125 0.21875 0  0.28125 0.25 0  0.375 0.21875 0  0.34375 0.21875 0  0.34375 0.25 0  0.4375 0.21875 0  0.40625 0.21875 0  0.40625 0.25 0  0.5 0.21875 0  0.46875 0.21875 0  0.46875 0.25 0  0.5625 0.21875 0  0.53125 0.21875 0  0.53125 0.25 0  0.625 0.21875 0  0.59375 0.21875 0  0.59375 0.25 0  0.6875 0.21875 0  0.65625 0.21875 0  0.65625 0.25 0  0.75 0.21875 0  0.71875 0.21875 0  0.71875 0.25 0  0.8125 0.21875 0  0.78125 0.21875 0  0.78125 0.25 0  0.875 0.21875 0  0.84375 0.21875 0  0.84375 0.25 0  0.0625 0.28125 0  0.03125 0.28125 0  0.03125 0.3125 0  0 0.28125 0  0.1875 0.28125 0  0.15625 0.28125 0  0.15625 0.3125 0  0.125 0.28125 0  0.25 0.28125 0  0.21875 0.28125 0  0.21875 0.3125 0  0.3125 0.28125 0  0.28125 0.28125 0  0.28125 0.3125 0  0.375 0.28125 0  0.34375 0.28125 0  0.34375 0.3125 0  0.4375 0.28125 0  0.40625 0.28125 0  0.40625 0.3125 0  0.5 0.28125 0  0.46875 0.28125 0  0.46875 0.3125 0  0.5625 0.28125 0  0.53125 0.28125 0  0.53125 0.3125 0  0.625 0.28125 0  0.59375 0.28125 0  0.59375 0.3125 0  0.6875 0.28125 0  0.65625 0.28125 0  0.65625 0.3125 0  0.75 0.28125 0  0.71875 0.28125 0  0.71875 0.3125 0  0.8125 0.28125 0  0.78125 0.28125 0  0.78125 0.3125 0  0.875 0.28125 0  0.84375 0.28125 0  0.84375 0.3125 0  0.0625 0.34375 0  0.03125 0.34375 0  0.03125 0.375 0  0 0.34375 0  0.125 0.34375 0  0.09375 0.34375 0  0.09375 0.3125 0  0.09375 0.375 0  0.25 0.34375 0  0.21875 0.34375 0  0.21875 0.375 0  0.1875 0.34375
[...]
<PointData  Scalars="u"> 
<DataArray  type="Float64"  Name="u"  format="ascii">0.0000000000000000e+00  0.0000000000000000e+00  0.0000000000000000e+00  0.0000000000000000e+00  0.0000000000000000e+00  0.0000000000000000e+00  0.0000000000000000e+00  0.0000000000000000e+00  0.0000000000000000e+00  0.0000000000000000e+00  0.0000000000000000e+00  0.0000000000000000e+00  0.0000000000000000e+00  0.0000000000000000e+00  0.0000000000000000e+00  0.0000000000000000e+00  0.0000000000000000e+00  0.0000000000000000e+00  6.5184999141620945e-02  6.2090174337658538e-02  6.0477817930025178e-02  6.2125786928451575e-02  6.0598758727799164e-02  6.2710343100749841e-02  5.9225054267771235e-02  6.4388661976298167e-02  5.8476917256184084e-02  6.1724291356203567e-02  6.0960582024057956e-02  6.0293587514924536e-02  6.4728370987511261e-02  5.2539376375892580e-02  8.7199851725959898e-02  0.0000000000000000e+00  0.0000000000000000e+00  7.3736570681608646e-02  1.3608418619031151e-01  1.1793222199808458e-01  1.2496182974883135e-01  1.2115479320856079e-01  1.2473359796593786e-01  1.2054517938752569e-01  1.2435091497299343e-01  1.2351343357941182e-01  1.1850735479294387e-01  1.2412148471967295e-01  1.1989302841081749e-01  1.2737134867806107e-01  1.0984154729832646e-01  1.6547700473982185e-01  0.0000000000000000e+00  0.0000000000000000e+00  3.0659436346166793e-03  1.9505779316016245e-01  1.8591595818693998e-01  1.8160616376969196e-01  1.8629254078242219e-01  1.8175506346229681e-01  1.8819375732581226e-01  1.7750127720588810e-01  1.9339038251199064e-01  1.7501510865551759e-01  1.8600397655866283e-01  1.8019176155877409e-01  1.8944445249913833e-01  1.6667045834230079e-01  2.4367315142837612e-01  0.0000000000000000e+00  0.0000000000000000e+00  -3.0991469273014459e-02  1.4711092641693782e-01  2.7480070246597166e-01  2.3518853703359013e-01  2.4998714486331566e-01  2.4240642601767920e-01  2.4935442049376980e-01  2.4117461982367344e-01  2.4873104542800545e-01  2.4677259819896505e-01  2.3788452015396741e-01  2.4548573555409040e-01  2.4891490046164300e-01  2.2423905833551172e-01  3.2096713001762783e-01  0.0000000000000000e+00  0.0000000000000000e+00  -5.3848534299404897e-03  1.7065577209578072e-02  3.2005596117065110e-01  3.1057189651516254e-01  3.0282004702454612e-01  3.1040577630932614e-01  3.0283375288075448e-01  3.1391180443958172e-01  2.9547508955897617e-01  3.2257255668702867e-01  2.9210987354218376e-01  3.0730369008687941e-01  3.1050220779783633e-01  2.8036899663120041e-01  3.9831457299683976e-01  0.0000000000000000e+00  0.0000000000000000e+00  1.3650053889130199e-02  -4.8428430315689837e-02  2.1890614075239609e-01  4.1348566837554379e-01  3.5243256383225630e-01  3.7486140014727609e-01  3.6390373626392214e-01  3.7366252991191534e-01  3.6213982792864824e-01  3.7269448974532604e-01  3.7099640264876604e-01  3.5377585328374461e-01  3.7959384959164560e-01  3.3300233804915402e-01  4.7650869158149711e-01  -3.3993712578441546e-16  0.0000000000000000e+00  3.0999698235878344e-03  -1.4450682649848253e-02  2.8708168700360356e-02  4.4632467720827446e-01  4.3497308037918048e-01  4.2415309539734847e-01  4.3452138777285620e-01  4.2371872350299911e-01  4.4017152532437592e-01  4.1238615953549240e-01  4.5384214810702506e-01  4.0420806762289113e-01  4.4396737657857172e-01  3.8843113300871612e-01  5.5315646526889561e-01  -4.0010528767635313e-16  0.0000000000000000e+00  -5.4962372563648783e-03  1.9091892575500868e-02  -6.4324918922702409e-02  2.9210947345150179e-01  5.5064665788014633e-01  4.7048532033198276e-01  4.9921437543600028e-01  4.8581408832941453e-01  4.9751277673506727e-01  4.8324680750945570e-01  4.9769914996958803e-01  4.9026236624956443e-01  4.8698160368159638e-01  4.5397694838118902e-01  6.2560004522370027e-01  -4.5803891643149021e-16  0.0000000000000000e+00  -1.4825364504261582e-03  7.1052212778063761e-03  -2.0600047096881430e-02  3.7213634501724886e-02  5.7459986132834107e-01  5.5870586801627364e-01  5.4585321122248365e-01  5.5864929798317864e-01  5.4461405380084138e-01  5.6671049868185752e-01  5.2962581387691121e-01  5.8159837755804522e-01  5.3350511108261434e-01  5.1537578130646866e-01  6.9992810595840238e-01  0.0000000000000000e+00  0.0000000000000000e+00  1.8653797164523268e-03  -6.4509874362385132e-03  2.2077812019272523e-02  -7.8648950343229065e-02  3.6420567527838943e-01  6.8696177855486185e-01  5.8904301733530395e-01  6.2252939779027228e-01  6.0820950071697788e-01  6.1967946628264170e-01  6.0677189717610680e-01  6.1599098011754438e-01  6.2925023506795341e-01  5.4895147991422066e-01  7.8560346503731882e-01  -5.7724497387446113e-16  0.0000000000000000e+00  9.4127961052260941e-04  -3.5296945043610129e-03  9.8146045214204773e-03  -2.3055394483147140e-02  3.4786073656911082e-02  7.0010569663392375e-01  6.8331671664635629e-01  6.6896310768509060e-01  6.8400527161959046e-01  6.6614800888184633e-01  6.9675068621939240e-01  6.3991929106223711e-01  7.3580098141042105e-01  5.8065374616910126e-01  8.7152435402815631e-01  -3.0526826928840772e-16  0.0000000000000000e+00  -6.7896419397198767e-04  1.8863753210029820e-03  -6.0240961410405235e-03  2.2505991771302223e-02  -8.7631914681101736e-02  4.2008508849662596e-01  8.1894266255313053e-01  7.0452247193677309e-01  7.4077279590696288e-01  7.2647012202481642e-01  7.3803031456571278e-01  7.2131312973293793e-01  7.5252635786715938e-01  6.7740848797487896e-01  9.2762210547252610e-01  -6.9910883840367196e-16  0.0000000000000000e+00  -5.0619272487819190e-04  1.9871933337165340e-03  -5.4075580489275502e-03  1.2634935751428831e-02  -2.5197496061167342e-02  2.9997107533036138e-02  8.4716745953576333e-01  8.2347893809016937e-01  8.0805078826919297e-01  8.2526989518097094e-01  8.0604819839981801e-01  8.3595981546039888e-01  7.9129612064438881e-01  8.1407909737050010e-01  9.6642424858807097e-01  -7.3598485519489291e-16  0.0000000000000000e+00  3.6812718449494124e-04  -8.9613691856117142e-04  2.1916300360188788e-03  -6.3268500740097924e-03  2.2237516735476793e-02  -8.8656069508017687e-02  4.4333449838093086e-01  8.7970082108193071e-01  7.6169264541800596e-01  7.9814586311570257e-01  7.8502537421098129e-01  7.8948042889603964e-01  8.0157572504162944e-01  7.2461697314447082e-01  1.0606429889345492e+00  -3.7553125831849026e-16  0.0000000000000000e+00  2.4242268454111200e-04  -1.0532186476489671e-03  3.2786978725866845e-03  -8.8984325821396312e-03  2.2114314205201217e-02  -4.6213766065698977e-02  5.1932413609527654e-02  1.2090370644709170e+00  1.2064560163581319e+00  1.1666817898005140e+00  1.1957702229303044e+00  1.1702000760860076e+00  1.2134571583398708e+00  1.1075821340033138e+00  1.4293650112769158e+00  -9.6756247466746460e-16  0.0000000000000000e+00  0.0000000000000000e+00  0.0000000000000000e+00  0.0000000000000000e+00  0.0000000000000000e+00  0.0000000000000000e+00  0.0000000000000000e+00  0.0000000000000000e+00  0.0000000000000000e+00  -4.6980527531028788e-16  -4.6880233664542029e-16  -4.5334694490659662e-16  -9.1936414554151244e-16  -9.2623690056587794e-16  -4.7152282680479907e-16  -9.8580199653151152e-16  -5.5541988113963045e-16  0.0000000000000000e+00  3.6868285340804344e-02  4.3599925862979998e-02  1.5329718173083407e-03  1.3439718192088568e-01  1.7675734936335152e-01  8.2738502369911052e-02  7.5088435025777292e-02  2.4381879417996466e-01  1.2183657571418824e-01  -6.9629460317181726e-03  3.1127681566617621e-01  1.6048356500881419e-01  1.1798585898098728e-01  3.7843884410634931e-01  1.9915728649842018e-01  -9.8601308076647597e-03  4.4307940165902548e-01  2.3825434579074894e-01  1.6040882107593127e-01  4.4897216247988109e-01  5.0701558911620892e-01  2.7657823263444820e-01  -1.3555642210488720e-02  5.0117869249403335e-01  5.7695252716979661e-01  3.1280002261185064e-01  2.0070965489005732e-01  5.4122829549841833e-01  6.5048962317189463e-01  3.4996405297920180e-01  -2.1931438343159044e-02  5.3215568595615703e-01  6.0495199061852833e-01  7.1023791697118954e-01  3.9280173251865996e-01  2.2743558107676881e-01  7.5952417959352814e-01  7.0660473469265117e-01  7.5413792582081474e-01  4.3576217701407882e-01  -2.8817403574032854e-02  6.3362627401619531e-01  7.5630462518866459e-01  7.8330272761883091e-01  8.2191636828147630e-01  4.6381105273626377e-01  2.3666580295698367e-01  8.6343414030884813e-01  7.9258579175408894e-01  8.0309832569244899e-01  8.0514763469597739e-01  7.9776431364793010e-01  8.1876777025101544e-01  7.5795654689443104e-01  9.3736104315252600e-01  4.8321212429403626e-01  -1.8361827949244951e-02  8.2618578142592458e-01  1.0430784187200328e+00  9.6418721760926140e-01  9.9695804302300484e-01  9.7761272514849584e-01  1.0014687936179567e+00  9.5457892952247314e-01  1.0769909922106948e+00  5.3032149446727550e-01  -2.3106883032849499e-02  2.5966206804763917e-02  6.0451853223545904e-01  6.0322800817906674e-01  5.8334089490025776e-01  5.9788511146515300e-01  5.8510003804300459e-01  6.0672857916993617e-01  5.5379106700165792e-01  7.1468250563845892e-01  3.2592499570810493e-02  3.2592499570810493e-02  0.0000000000000000e+00  3.2592499570810493e-02  0.0000000000000000e+00  3.1045087168829304e-02  3.1045087168829307e-02  0.0000000000000000e+00  6.3637586739639804e-02  3.0238908965012610e-02  3.0238908965012610e-02  0.0000000000000000e+00  6.1283996133841917e-02  3.1062893464225808e-02  3.1062893464225808e-02  0.0000000000000000e+00  6.1301802429238425e-02  3.0299379363899603e-02  3.0299379363899603e-02  0.0000000000000000e+00  6.1362272828125418e-02  3.1355171550374955e-02  3.1355171550374955e-02  0.0000000000000000e+00  6.1654550914274561e-02  2.9612527133885638e-02  2.9612527133885638e-02  0.0000000000000000e+00  6.0967698684260600e-02  3.2194330988149118e-02  3.2194330988149118e-02  0.0000000000000000e+00  6.1806858122034763e-02  2.9238458628092077e-02  2.9238458628092080e-02  0.0000000000000000e+00  6.1432789616241198e-02  3.0862145678101815e-02  3.0862145678101818e-02  0.0000000000000000e+00  6.0100604306193899e-02  3.0480291012028999e-02  3.0480291012028999e-02  0.0000000000000000e+00  6.1342436690130821e-02  3.0146793757462299e-02  3.0146793757462303e-02  0.0000000000000000e+00  6.0627084769491302e-02  3.2364185493755651e-02  3.2364185493755651e-02  0.0000000000000000e+00  6.2510979251217957e-02  2.6269688187946307e-02  2.6269688187946307e-02  0.0000000000000000e+00  5.8633873681701962e-02  4.3599925862979977e-02  4.3599925862979977e-02  0.0000000000000000e+00  6.9869614050926288e-02  9.9087180263985136e-02  1.0063459266596633e-01  1.0491037843596018e-01  6.9460784911614837e-02  8.9205019964054999e-02  9.0011198167871689e-02  1.2700820409419822e-01  9.3543808338641565e-02  9.2719823839428367e-02  1.2144702587345814e-01  9.0876775968180071e-02  9.1640290068506269e-02  1.2305831147869623e-01  9.3721970533343954e-02  9.2666178346868605e-02  1.2294419558724946e-01  8.9885116827648562e-02  9.1627761244137879e-02  1.2263938867673191e-01  9.4369788474645916e-02  9.1787984620382443e-02  1.2244804718025971e-01  9.0995175417798058e-02  9.3951047777855096e-02  1.2393217427620278e-01  9.0115823074573831e-02  8.8492136024564086e-02  1.2101039418617798e-01  9.2541033371865547e-02  9.2922888037938356e-02  1.2131441975630855e-01  9.0093307962871128e-02  9.0426805217437831e-02  1.2200725656524537e-01  9.6049859832786272e-02  9.3832468096492913e-02  1.2363218854443944e-01  8.1190461837109609e-02  8.7284959142918950e-02  1.1860644798819392e-01  1.2633842823289099e-01  1.0900819055785732e-01  1.3765927601907432e-01  1.5192409009251251e-01  1.6100007218862594e-01  1.9048687567355144e-01  1.6557098967523717e-01  1.5328399675926185e-01  1.4976919288388846e-01  1.8376106097831621e-01  1.5372366699549167e-01  1.5562718526562697e-01  1.8394935227605730e-01  1.5324433071411753e-01  1.5145492833542901e-01  1.8402380212235975e-01  1.5436946835666918e-01  1.5646367764587527e-01  1.8497441039405477e-01  1.5092609608944096e-01  1.4902322829670708e-01  1.8284751726585041e-01  1.5845190804570142e-01  1.5887064874249224e-01  1.8544582985893959e-01  1.4676123172423092e-01  1.4926427111746490e-01  1.8420274558375435e-01  1.5506273063916809e-01  1.5225566567580354e-01  1.8050954260709046e-01  1.5004239498479599e-01  1.5215662313922371e-01  1.8309786905871872e-01  1.5840790058859991e-01  1.5466874045497814e-01  1.8481810702895646e-01  1.3825600282031381e-01  1.4702090351018116e-01  1.7805745542071982e-01  -1.3962762819198900e-02  -1.5495734636507240e-02  1.5329718173083407e-03  -1.5495734636507240e-02  0.0000000000000000e+00  2.3035833032645614e-01  2.3492924781306734e-01  2.1095581444145498e-01  1.7108435978855030e-01  2.0839735040164137e-01  2.1055224761026536e-01  2.5499461974978127e-01  2.1813984282286925e-01  2.1579665431650413e-01  2.4258784094845326e-01  2.1208074473998831e-01  2.1434948340005100e-01  2.4619678544049778e-01  2.1877408890979133e-01  2.1555474197803359e-01  2.4588042325572484e-01  2.0933794851478105e-01  2.1468418857474314e-01  2.4526452015872197e-01  2.2106071396999832e-01  2.1311616131694705e-01  2.4495283262583978e-01  2.1089385342724162e-01  2.2008149035547814e-01  2.4775182181348560e-01  2.1194424835631542e-01  2.0644981440474280e-01  2.4232855917646659e-01  2.1283874855643253e-01  2.1574485605637692e-01  2.4168512785402926e-01  2.1917967648039097e-01  2.1455333101020885e-01  2.4720031800786704e-01  1.9545475833890658e-01  2.0684175541732536e-01  2.3657697939857772e-01  -1.8188161351477494e-02  -2.6924267149702539e-03  -2.6924267149702526e-03  0.0000000000000000e+00  2.9742833181831174e-01  2.3358344379379473e-01  1.6856076919011481e-01  8.2088251813258031e-02  2.7288021677437674e-01  2.9268629949056746e-01  3.1531392884290727e-01  2.7640359594393127e-01  2.6900429202906850e-01  3.0669597176985475e-01  2.7640610116350306e-01  2.8019646058632131e-01  3.0661291166693649e-01  2.7609408668726254e-01  2.7262008944921723e-01  3.0661976459504070e-01  2.7754321213162797e-01  2.8163311246667616e-01  3.0837277866016854e-01  2.7210306749349117e-01  2.6832485469132517e-01  3.0469344699927936e-01  2.8467257744299729e-01  2.8565180105751747e-01  3.0902382312300281e-01  2.6499719684807599e-01  2.6944123587057478e-01  3.0734121511460666e-01  2.7639471282048528e-01  2.7259410512042381e-01  2.9970678181453198e-01  2.7970855412974005e-01  2.7799397167596374e-01  3.0890294894235826e-01  2.5230402748335645e-01  2.6464194854642209e-01  2.9543560221451876e-01  4.1326002295948502e-03  6.8250269445651037e-03  6.8250269445651037e-03  0.0000000000000000e+00  -1.5681426553055867e-02  -2.6906641872815183e-02  5.8403618898188094e-03  -1.7389188213279828e-02  3.6202878244535364e-01  3.6677081477309792e-01  3.1619590456397040e-01  2.6948105096152397e-01  3.2762630542840165e-01  3.3150223017370983e-01  3.8295911610390054e-01  3.4263358822830153e-01  3.3884072358591155e-01  3.6364698198976669e-01  3.3336874457233878e-01  3.3715475628662461e-01  3.6938256820559967e-01  3.4378716717574898e-01  3.3824814139633536e-01  3.6878313308791927e-01  3.2880745874381268e-01  3.3802581618411554e-01  3.6790117892028229e-01  3.4763352321617791e-01  3.3408478965215160e-01  3.6741715883698767e-01  3.3155313809547537e-01  3.4678447966789783e-01  3.7184544619704657e-01  3.3053977168531246e-01  3.2294286341296469e-01  3.6238612796625586e-01  3.4504802869474149e-01  3.4344876983926298e-01  3.6668485143769569e-01  3.0668566734017766e-01  3.2175227292349567e-01  3.5629809382040034e-01  8.3750118563590253e-03  1.5499849117939215e-03  1.5499849117939209e-03  0.0000000000000000e+00  -3.1439556482769061e-02  -4.0031438035902350e-04  -5.6753564131302066e-03  4.2990517279190965e-01  3.3261540898033576e-01  2.3751642295431769e-01  1.2380715472637840e-01  3.9370282210571894e-01  4.2422937437736274e-01  4.4064887879372810e-01  3.9950724777231289e-01  3.8829282961480299e-01  4.2956308788826514e-01  3.9921256201838984e-01  4.0469139396006676e-01  4.2933724158510300e-01  3.9869062670745781e-01  3.9381122988346129e-01  4.2912005563792832e-01  4.0115567662651275e-01  4.0691702761814630e-01  4.3194512441368821e-01  3.9254032464040989e-01  3.8726299373207096e-01  4.2627884242993486e-01  4.1241927537789613e-01  4.1326831892617621e-01  4.3311415382125940e-01  3.7899196045331851e-01  3.8760223513582920e-01  4.2902510786495879e-01  4.1178061308510927e-01  3.9887161493115880e-01  4.2408772210073209e-01  3.6071673552893568e-01  3.8401249130018145e-01  4.1619925479364461e-01  -1.1981337163885194e-03  -2.7481186281824404e-03  -2.7481186281824404e-03  0.0000000000000000e+00  2.3206049628263078e-03  1.1095931199544358e-02  6.7978276595679968e-03  -1.7808375111171046e-02  -3.9387800786275351e-02  7.1287430252560445e-03  -2.2616513173600784e-02  4.9280986912966407e-01  4.9848566754421109e-01  4.2137806566582459e-01  3.6921707532988862e-01  4.4731920786466628e-01  4.5272920035558228e-01  5.1056598910606521e-01  4.6686788160442894e-01  4.6168373541667507e-01  4.8484984788399227e-01  4.5476640591620754e-01  4.6016773805113609e-01  4.9251423188270815e-01  4.6884215102972238e-01  4.6061575011903388e-01  4.9166343253224165e-01  4.4781648352247472e-01  4.6170916641691656e-01  4.9037979212226224e-01  4.7577064903830724e-01  4.5504265475254091e-01  4.9047297873952261e-01  4.4723521693622847e-01  4.7205225717829546e-01  4.9398075810957698e-01  4.6547449013008479e-01  4.4559483565224445e-01  4.8862198496558118e-01  -3.4893868533955219e-03  -7.4126822521308094e-04  -7.4126822521308072e-04  0.0000000000000000e+00  1.3098556926653633e-02  8.0449201072075281e-04  2.8113424136901122e-03  -4.2462483009791947e-02  -7.5407726069027722e-04  -6.7474129095375212e-03  5.6262325960424442e-01  4.3335466738992201e-01  3.0590674791503336e-01  1.6466155397661358e-01  5.1459559417412903e-01  5.5467626294821071e-01  5.6665286467230813e-01  5.2253379332924277e-01  5.0816926577723398e-01  5.5227953961937948e-01  5.2223169315629736e-01  5.2893183670959032e-01  5.5225125460283198e-01  5.2106341526795519e-01  5.1521407106512873e-01  5.5163167589201079e-01  5.2497865309565739e-01  5.3211163770846315e-01  5.5566227624135034e-01  5.1366248192325037e-01  5.0643631069318418e-01  5.4816815627938520e-01  5.3593037190380555e-01  5.3964876376381743e-01  5.5561209571747894e-01  5.1024335738210613e-01  5.1188373866609016e-01  5.5755174432033061e-01  1.9142163301308292e-04  9.3268985822616364e-04  9.3268985822616375e-04  0.0000000000000000e+00  3.2711692078393534e-04  -3.9667619433323394e-03  -2.2928038598930950e-03  7.3888246119554850e-04  1.4591516648539462e-02  7.8134122915170107e-03  -2.0717657920752058e-02  -4.9624498720055282e-02  8.3067937024217751e-03  -2.8285569161978288e-02  6.2283382328556858e-01  6.3078081994160229e-01  5.2558372691662625e-01  4.6940276830336575e-01  5.6744811427889463e-01  5.7387444267578969e-01  6.3800239794508384e-01  5.9058934788672635e-01  5.8419130450637879e-01  6.0578620756278889e-01  5.7641177725891046e-01  5.8342939935007909e-01  6.1536944925362591e-01  5.9319498248225044e-01  5.8214676004174237e-01  6.1394448349981068e-01  5.6819885552650984e-01  5.8674119792898294e-01  6.1322568172937508e-01  5.9879467883779558e-01  5.7280839699722863e-01  6.1138143864682637e-01  5.8137767307528476e-01  6.0542430631300015e-01  6.2262060759274984e-01  1.4033296634874690e-03  4.7063980526130503e-04  4.7063980526130503e-04  0.0000000000000000e+00  -4.9903409702997678e-03  -8.3215739395434488e-04  -1.2942074469192034e-03  1.5946208270346512e-02  1.6818085425909812e-03  3.1424550085297313e-03  -5.0852172413188144e-02  -4.8879123193729807e-04  -6.6203949808633271e-03  6.3617986699083118e-01  6.8513924760061018e-01  6.9171120664014096e-01  6.9353373759439363e-01  6.4574625273768227e-01  6.2900306251019822e-01  6.7613991216572455e-01  6.4610738616828511e-01  6.5326733470493237e-01  6.7648418965234158e-01  6.4291373758224490e-01  6.3717875479941311e-01  6.7507664025071956e-01  6.5176129169775043e-01  6.5821507625101794e-01  6.8144934755062048e-01  6.2795513558989158e-01  6.2334559411917279e-01  6.6833498864081575e-01  6.8252560823918818e-01  6.7589598076398361e-01  6.8786013623633013e-01  1.3115770827531125e-04  -3.3948209698599383e-04  -3.3948209698