<?xml version="1.0"?>
<VTKFile type="UnstructuredGrid"  version="0.1"  >
<UnstructuredGrid>
<Piece  NumberOfPoints="193" NumberOfCells="352">
<Points>
<DataArray  type="Float64"  NumberOfComponents="3"  format="ascii">0 0 0  0.125 0 0  0.25 0 0  0.375 0 0  0.5 0 0  0.625 0 0  0.75 0 0  0.875 0 0  1 0 0  0 0.125 0  0.125 0.125 0  0.25 0.125 0  0.375 0.125 0  0.5 0.125 0  0.625 0.125 0  0.75 0.125 0  0.875 0.125 0  1 0.125 0  0 0.25 0  0.125 0.25 0  0.25 0.25 0  0.375 0.25 0  0.5 0.25 0  0.625 0.25 0  0.75 0.25 0  0.875 0.25 0  1 0.25 0  0 0.375 0  0.125 0.375 0  0.25 0.375 0  0.375 0.375 0  0.5 0.375 0  0.625 0.375 0  0.75 0.375 0  0.875 0.375 0  1 0.375 0  0 0.5 0  0.125 0.5 0  0.25 0.5 0  0.375 0.5 0  0.5 0.5 0  0.625 0.5 0  0.75 0.5 0  0.875 0.5 0  1 0.5 0  0 0.625 0  0.125 0.625 0  0.25 0.625 0  0.375 0.625 0  0.5 0.625 0  0.625 0.625 0  0.75 0.625 0  0.875 0.625 0  1 0.625 0  0 0.75 0  0.125 0.75 0  0.25 0.75 0  0.375 0.75 0  0.5 0.75 0  0.625 0.75 0  0.75 0.75 0  0.875 0.75 0  1 0.75 0  0 0.875 0  0.125 0.875 0  0.25 0.875 0  0.375 0.875 0  0.5 0.875 0  0.625 0.875 0  0.75 0.875 0  0.875 0.875 0  1 0.875 0  0 1 0  0.125 1 0  0.25 1 0  0.375 1 0  0.5 1 0  0.625 1 0  0.75 1 0  0.875 1 0  1 1 0  0.4375 0.4375 0  0.5625 0.4375 0  0.4375 0.5625 0  0.5625 0.5625 0  0.4375 0.3125 0  0.5625 0.3125 0  0.3125 0.4375 0  0.6875 0.4375 0  0.3125 0.5625 0  0.6875 0.5625 0  0.4375 0.6875 0  0.5625 0.6875 0  0.4375 0.375 0  0.5 0.4375 0  0.375 0.4375 0  0.4375 0.5 0  0.5625 0.375 0  0.625 0.4375 0  0.5625 0.5 0  0.5 0.5625 0  0.375 0.5625 0  0.4375 0.625 0  0.625 0.5625 0  0.5625 0.625 0  0.3125 0.3125 0  0.6875 0.3125 0  0.3125 0.6875 0  0.6875 0.6875 0  0.40625 0.40625 0  0.46875 0.40625 0  0.46875 0.46875 0  0.53125 0.40625 0  0.53125 0.46875 0  0.40625 0.46875 0  0.40625 0.53125 0  0.46875 0.53125 0  0.59375 0.40625 0  0.59375 0.46875 0  0.53125 0.53125 0  0.59375 0.53125 0  0.46875 0.59375 0  0.53125 0.59375 0  0.40625 0.59375 0  0.59375 0.59375 0  0.4375 0.1875 0  0.1875 0.4375 0  0.8125 0.5625 0  0.5625 0.8125 0  0.4375 0.25 0  0.5 0.3125 0  0.375 0.3125 0  0.5625 0.25 0  0.5625 0.1875 0  0.625 0.3125 0  0.3125 0.375 0  0.25 0.4375 0  0.3125 0.5 0  0.6875 0.5 0  0.6875 0.375 0  0.75 0.4375 0  0.8125 0.4375 0  0.25 0.5625 0  0.1875 0.5625 0  0.3125 0.625 0  0.75 0.5625 0  0.6875 0.625 0  0.5 0.6875 0  0.375 0.6875 0  0.4375 0.75 0  0.4375 0.8125 0  0.625 0.6875 0  0.5625 0.75 0  0.40625 0.34375 0  0.46875 0.34375 0  0.34375 0.40625 0  0.34375 0.46875 0  0.53125 0.34375 0  0.59375 0.34375 0  0.65625 0.40625 0  0.65625 0.46875 0  0.34375 0.53125 0  0.34375 0.59375 0  0.40625 0.65625 0  0.46875 0.65625 0  0.65625 0.53125 0  0.65625 0.59375 0  0.53125 0.65625 0  0.59375 0.65625 0  0.46875 0.375 0  0.5 0.40625 0  0.46875 0.4375 0  0.5 0.46875 0  0.46875 0.5 0  0.4375 0.46875 0  0.53125 0.4375 0  0.53125 0.375 0  0.53125 0.5 0  0.5625 0.46875 0  0.375 0.46875 0  0.40625 0.5 0  0.4375 0.53125 0  0.375 0.53125 0  0.5 0.53125 0  0.46875 0.5625 0  0.625 0.46875 0  0.59375 0.5 0  0.5625 0.53125 0  0.53125 0.5625 0  0.625 0.53125 0  0.5 0.59375 0  0.46875 0.625 0  0.53125 0.625 0  </DataArray>
</Points>
<Cells>
<DataArray  type="UInt32"  Name="connectivity"  format="ascii">0 1 10  0 9 10  1 2 11  1 10 11  2 3 12  2 11 12  3 4 13  3 12 13  4 5 14  4 13 14  5 6 15  5 14 15  6 7 16  6 15 16  7 8 17  7 16 17  9 10 19  9 18 19  10 11 20  10 19 20  11 12 21  11 20 21  14 15 24  14 23 24  15 16 25  15 24 25  16 17 26  16 25 26  18 19 28  18 27 28  19 20 29  19 28 29  24 25 34  24 33 34  25 26 35  25 34 35  27 28 37  27 36 37  34 35 44  34 43 44  36 37 46  36 45 46  43 44 53  43 52 53  45 46 55  45 54 55  46 47 56  46 55 56  51 52 61  51 60 61  52 53 62  52 61 62  54 55 64  54 63 64  55 56 65  55 64 65  56 57 66  56 65 66  59 60 69  59 68 69  60 61 70  60 69 70  61 62 71  61 70 71  63 64 73  63 72 73  64 65 74  64 73 74  65 66 75  65 74 75  66 67 76  66 75 76  67 68 77  67 76 77  68 69 78  68 77 78  69 70 79  69 78 79  70 71 80  70 79 80  20 21 105  20 29 105  23 24 106  24 33 106  47 56 107  56 57 107  51 60 108  59 60 108  30 93 109  81 93 109  30 95 109  81 95 109  81 93 110  82 97 112  81 95 114  83 101 115  32 97 117  82 97 117  32 98 117  82 98 117  82 98 118  84 103 120  83 102 121  84 104 122  48 101 123  83 101 123  48 102 123  83 102 123  50 103 124  84 103 124  50 104 124  84 104 124  12 21 125  12 13 125  13 22 125  28 29 126  28 37 126  37 38 126  51 52 127  42 43 127  43 52 127  59 68 128  58 67 128  67 68 128  21 85 129  22 85 129  21 125 129  22 125 129  22 85 130  22 86 130  21 85 131  21 105 131  30 105 131  22 86 132  23 86 132  13 22 133  13 14 133  14 23 133  22 132 133  23 132 133  23 86 134  23 106 134  32 106 134  29 87 135  29 105 135  30 105 135  29 87 136  38 87 136  29 126 136  38 126 136  38 87 137  38 89 137  42 88 138  42 90 138  33 88 139  32 106 139  33 106 139  33 88 140  42 88 140  42 43 141  33 34 141  34 43 141  33 140 141  42 140 141  38 89 142  47 89 142  37 38 143  37 46 143  46 47 143  38 142 143  47 142 143  47 89 144  47 107 144  48 107 144  42 90 145  51 90 145  42 127 145  51 127 145  51 90 146  50 108 146  51 108 146  58 91 147  58 92 147  57 91 148  48 107 148  57 107 148  57 91 149  58 91 149  58 67 150  57 66 150  66 67 150  57 149 150  58 149 150  59 92 151  50 108 151  59 108 151  58 92 152  59 92 152  58 128 152  59 128 152  30 93 153  85 93 153  30 131 153  85 131 153  85 93 154  31 130 154  85 130 154  30 95 155  87 95 155  30 135 155  87 135 155  87 95 156  39 137 156  87 137 156  86 97 157  31 130 157  86 130 157  32 97 158  86 97 158  32 134 158  86 134 158  32 98 159  88 98 159  32 139 159  88 139 159  88 98 160  41 138 160  88 138 160  89 101 161  39 137 161  89 137 161  48 101 162  89 101 162  48 144 162  89 144 162  48 102 163  91 102 163  48 148 163  91 148 163  91 102 164  49 147 164  91 147 164  90 103 165  41 138 165  90 138 165  50 103 166  90 103 166  50 146 166  90 146 166  92 104 167  49 147 167  92 147 167  50 104 168  92 104 168  50 151 168  92 151 168  31 110 169  93 110 169  31 154 169  93 154 169  31 110 170  94 110 170  31 112 170  94 112 170  81 110 171  94 110 171  81 111 171  94 111 171  40 111 172  94 111 172  40 113 172  94 113 172  40 111 173  96 111 173  40 116 173  96 116 173  81 111 174  96 111 174  81 114 174  96 114 174  82 112 175  94 112 175  82 113 175  94 113 175  31 112 176  97 112 176  31 157 176  97 157 176  40 113 177  99 113 177  40 119 177  99 119 177  82 113 178  99 113 178  82 118 178  99 118 178  39 114 179  95 114 179  39 156 179  95 156 179  39 114 180  96 114 180  39 115 180  96 115 180  83 115 181  96 115 181  83 116 181  96 116 181  39 115 182  101 115 182  39 161 182  101 161 182  40 116 183  100 116 183  40 119 183  100 119 183  83 116 184  100 116 184  83 121 184  100 121 184  41 118 185  98 118 185  41 160 185  98 160 185  41 118 186  99 118 186  41 120 186  99 120 186  84 119 187  99 119 187  84 120 187  99 120 187  84 119 188  100 119 188  84 122 188  100 122 188  41 120 189  103 120 189  41 165 189  103 165 189  49 121 190  100 121 190  49 122 190  100 122 190  49 121 191  102 121 191  49 164 191  102 164 191  49 122 192  104 122 192  49 167 192  104 167 192  </DataArray>
<DataArray  type="UInt32"  Name="offsets"  format="ascii">3 6 9 12 15 18 21 24 27 30 33 36 39 42 45 48 51 54 57 60 63 66 69 72 75 78 81 84 87 90 93 96 99 102 105 108 111 114 117 120 123 126 129 132 135 138 141 144 147 150 153 156 159 162 165 168 171 174 177 180 183 186 189 192 195 198 201 204 207 210 213 216 219 222 225 228 231 234 237 240 243 246 249 252 255 258 261 264 267 270 273 276 279 282 285 288 291 294 297 300 303 306 309 312 315 318 321 324 327 330 333 336 339 342 345 348 351 354 357 360 363 366 369 372 375 378 381 384 387 390 393 396 399 402 405 408 411 414 417 420 423 426 429 432 435 438 441 444 447 450 453 456 459 462 465 468 471 474 477 480 483 486 489 492 495 498 501 504 507 510 513 516 519 522 525 528 531 534 537 540 543 546 549 552 555 558 561 564 567 570 573 576 579 582 585 588 591 594 597 600 603 606 609 612 615 618 621 624 627 630 633 636 639 642 645 648 651 654 657 660 663 666 669 672 675 678 681 684 687 690 693 696 699 702 705 708 711 714 717 720 723 726 729 732 735 738 741 744 747 750 753 756 759 762 765 768 771 774 777 780 783 786 789 792 795 798 801 804 807 810 813 816 819 822 825 828 831 834 837 840 843 846 849 852 855 858 861 864 867 870 873 876 879 882 885 888 891 894 897 900 903 906 909 912 915 918 921 924 927 930 933 936 939 942 945 948 951 954 957 960 963 966 969 972 975 978 981 984 987 990 993 996 999 1002 1005 1008 1011 1014 1017 1020 1023 1026 1029 1032 1035 1038 1041 1044 1047 1050 1053 1056 </DataArray>
<DataArray  type="UInt8"  Name="types"  format="ascii">5 5 5 5 5 5 5 5 5 5 5 5 5 5 5 5 5 5 5 5 5 5 5 5 5 5 5 5 5 5 5 5 5 5 5 5 5 5 5 5 5 5 5 5 5 5 5 5 5 5 5 5 5 5 5 5 5 5 5 5 5 5 5 5 5 5 5 5 5 5 5 5 5 5 5 5 5 5 5 5 5 5 5 5 5 5 5 5 5 5 5 5 5 5 5 5 5 5 5 5 5 5 5 5 5 5 5 5 5 5 5 5 5 5 5 5 5 5 5 5 5 5 5 5 5 5 5 5 5 5 5 5 5 5 5 5 5 5 5 5 5 5 5 5 5 5 5 5 5 5 5 5 5 5 5 5 5 5 5 5 5 5 5 5 5 5 5 5 5 5 5 5 5 5 5 5 5 5 5 5 5 5 5 5 5 5 5 5 5 5 5 5 5 5 5 5 5 5 5 5 5 5 5 5 5 5 5 5 5 5 5 5 5 5 5 5 5 5 5 5 5 5 5 5 5 5 5 5 5 5 5 5 5 5 5 5 5 5 5 5 5 5 5 5 5 5 5 5 5 5 5 5 5 5 5 5 5 5 5 5 5 5 5 5 5 5 5 5 5 5 5 5 5 5 5 5 5 5 5 5 5 5 5 5 5 5 5 5 5 5 5 5 5 5 5 5 5 5 5 5 5 5 5 5 5 5 5 5 5 5 5 5 5 5 5 5 5 5 5 5 5 5 5 5 5 5 5 5 5 5 5 5 5 5 5 5 5 5 5 5 5 5 5 5 5 5 5 5 5 5 5 5 </DataArray>
</Cells>
<PointData  Scalars="u"> 
<DataArray  type="Float64"  Name="u"  format="ascii">0.0000000000000000e+00  0.0000000000000000e+00  0.0000000000000000e+00  0.0000000000000000e+00  0.0000000000000000e+00  0.0000000000000000e+00  0.0000000000000000e+00  0.0000000000000000e+00  0.0000000000000000e+00  0.0000000000000000e+00  1.5479929741683993e+01  3.0669505040838057e+01  4.3295492684638148e+01  4.8508158370270202e+01  4.3293390478780168e+01  3.0665294407998093e+01  1.5478205375338876e+01  0.0000000000000000e+00  0.0000000000000000e+00  3.0669505040838146e+01  6.2840107274838289e+01  9.3251087952153355e+01  1.0746671954145015e+02  9.3245946585165413e+01  6.2835311138856348e+01  3.0665294407997973e+01  0.0000000000000000e+00  0.0000000000000000e+00  4.3295492684638475e+01  9.3251087952153895e+01  1.5251038035891847e+02  1.8895741442322949e+02  1.5250936602755036e+02  9.3245946585165996e+01  4.3293390478780040e+01  0.0000000000000000e+00  0.0000000000000000e+00  4.8508158370270465e+01  1.0746671954145084e+02  1.8895741442323003e+02  2.5135472336364228e+02  1.8895741442323134e+02  1.0746671954145195e+02  4.8508158370270721e+01  0.0000000000000000e+00  0.0000000000000000e+00  4.3293390478780296e+01  9.3245946585165697e+01  1.5250936602755093e+02  1.8895741442323109e+02  1.5251038035892037e+02  9.3251087952155899e+01  4.3295492684638901e+01  0.0000000000000000e+00  0.0000000000000000e+00  3.0665294407998161e+01  6.2835311138856547e+01  9.3245946585165839e+01  1.0746671954145192e+02  9.3251087952155672e+01  6.2840107274839362e+01  3.0669505040838228e+01  0.0000000000000000e+00  0.0000000000000000e+00  1.5478205375338909e+01  3.0665294407998026e+01  4.3293390478780069e+01  4.8508158370270692e+01  4.3295492684638802e+01  3.0669505040838217e+01  1.5479929741683902e+01  0.0000000000000000e+00  0.0000000000000000e+00  0.0000000000000000e+00  0.0000000000000000e+00  0.0000000000000000e+00  0.0000000000000000e+00  0.0000000000000000e+00  0.0000000000000000e+00  0.0000000000000000e+00  0.0000000000000000e+00  2.1529922267606796e+02  2.1529896394849763e+02  2.1529896394849808e+02  2.1529922267606938e+02  1.3866427524709289e+02  1.3866347626832950e+02  1.3866427524709368e+02  1.3866347626833078e+02  1.3866347626833010e+02  1.3866427524709511e+02  1.3866347626833067e+02  1.3866427524709474e+02  1.7827400317638637e+02  2.3174631604183043e+02  1.7827400317638711e+02  2.3174631604183065e+02  1.7827348337222975e+02  1.7827348337223074e+02  2.3174631604183131e+02  2.3174631604183153e+02  1.7827348337223037e+02  1.7827348337223117e+02  1.7827400317638853e+02  1.7827400317638831e+02  1.0100303257622575e+02  1.0100111461683358e+02  1.0100111461683375e+02  1.0100303257622764e+02  1.8351407868533011e+02  2.0798436815608494e+02  2.4110077257502033e+02  2.0798417356905813e+02  2.4110070784094131e+02  2.0798436815608562e+02  2.0798417356905824e+02  2.4110070784094154e+02  1.8351349891028443e+02  2.0798417356905901e+02  2.4110077257502115e+02  2.0798436815608670e+02  2.0798417356905927e+02  2.0798436815608679e+02  1.8351349891028514e+02  1.8351407868533187e+02  7.3543168969085784e+01  7.3543168969086338e+01  7.3543168969087432e+01  7.3543168969087262e+01  1.0362346707606230e+02  1.4504063381618610e+02  1.2222588580149304e+02  1.0362257173352296e+02  7.3542445768022162e+01  1.2222431704481176e+02  1.2222588580149358e+02  1.0362346707606325e+02  1.4504063381618687e+02  1.4504063381618806e+02  1.2222431704481205e+02  1.0362257173352413e+02  7.3542445768022873e+01  1.0362257173352342e+02  7.3542445768022489e+01  1.2222431704481215e+02  1.0362346707606474e+02  1.2222588580149549e+02  1.4504063381618806e+02  1.2222431704481207e+02  1.0362257173352421e+02  7.3542445768022844e+01  1.2222588580149520e+02  1.0362346707606460e+02  1.4882129830860038e+02  1.6421757391700876e+02  1.4882129830860077e+02  1.6421757391700956e+02  1.6421724621378863e+02  1.4882031964583933e+02  1.4882031964583979e+02  1.6421724621379045e+02  1.6421724621378908e+02  1.4882031964583990e+02  1.4882031964583999e+02  1.6421724621379025e+02  1.6421757391701092e+02  1.4882129830860251e+02  1.6421757391701067e+02  1.4882129830860228e+02  1.8615892867390511e+02  2.1155559385844214e+02  2.2737515099472665e+02  2.4610895855979041e+02  2.4610895855979015e+02  2.2737515099472728e+02  2.2737502150124917e+02  1.8615866799298118e+02  2.4610895855979061e+02  2.2737502150124979e+02  1.8615892867390596e+02  2.1155559385844259e+02  2.2737502150124942e+02  1.8615866799298158e+02  2.4610895855979103e+02  2.2737502150125013e+02  1.8615866799298283e+02  2.1155559385844342e+02  2.2737515099472819e+02  2.2737515099472787e+02  1.8615892867390716e+02  2.1155559385844350e+02  1.8615866799298274e+02  1.8615892867390707e+02  </DataArray> 
</PointData> 
</Piece>
</UnstructuredGrid>
</VTKFile>